# Force coefficients
# liftDir     : (0.000000e+00 0.000000e+00 1.000000e+00)
# dragDir     : (1.000000e+00 0.000000e+00 0.000000e+00)
# pitchAxis   : (0.000000e+00 1.000000e+00 0.000000e+00)
# magUInf     : 2.000000e+01
# lRef        : 1.420000e+00
# Aref        : 7.500000e-01
# CofR        : (7.200000e-01 0.000000e+00 0.000000e+00)
# Time        	Cm            	Cd            	Cl            	Cl(f)         	Cl(r)         
0             	0.000000e+00	0.000000e+00	0.000000e+00	0.000000e+00	0.000000e+00
0.05          	7.610011e-02	3.297257e-03	-2.387931e-04	7.598071e-02	-7.621951e-02
0.1           	6.386894e-02	2.763422e-03	-1.644122e-04	6.378674e-02	-6.395115e-02
0.15          	5.264453e-02	2.285198e-03	-1.054301e-04	5.259181e-02	-5.269724e-02
0.2           	4.192584e-02	1.835271e-03	-5.987076e-05	4.189590e-02	-4.195577e-02
0.25          	3.223605e-02	1.434030e-03	-2.204820e-05	3.222503e-02	-3.224707e-02
0.3           	2.410349e-02	1.099898e-03	7.651173e-06	2.410732e-02	-2.409967e-02
0.35          	1.427662e-02	7.449116e-04	1.055243e-04	1.432938e-02	-1.422386e-02
0.4           	1.142251e-02	6.095412e-04	9.513963e-05	1.147008e-02	-1.137494e-02
0.45          	1.038729e-02	5.432667e-04	6.949264e-05	1.042204e-02	-1.035255e-02
0.5           	8.969601e-03	4.649784e-04	5.284819e-05	8.996025e-03	-8.943177e-03
0.55          	8.213677e-03	4.009273e-04	2.106267e-05	8.224208e-03	-8.203145e-03
0.6           	6.552944e-03	3.147235e-04	6.497685e-06	6.556193e-03	-6.549695e-03
0.65          	4.726514e-03	2.425079e-04	1.043029e-05	4.731729e-03	-4.721298e-03
0.7           	3.529357e-03	1.983494e-04	1.831737e-05	3.538516e-03	-3.520199e-03
0.75          	2.911695e-03	1.735631e-04	2.354458e-05	2.923467e-03	-2.899923e-03
0.8           	2.655252e-03	1.586093e-04	2.412783e-05	2.667316e-03	-2.643188e-03
0.85          	2.521955e-03	1.465612e-04	2.015780e-05	2.532034e-03	-2.511876e-03
0.9           	2.363196e-03	1.345911e-04	1.509251e-05	2.370742e-03	-2.355649e-03
0.95          	2.170540e-03	1.231811e-04	1.146579e-05	2.176272e-03	-2.164807e-03
1             	1.993024e-03	1.136572e-04	9.479363e-06	1.997763e-03	-1.988284e-03
1.05          	1.855779e-03	1.060229e-04	8.271791e-06	1.859915e-03	-1.851643e-03
1.1           	1.753604e-03	9.989263e-05	7.346400e-06	1.757277e-03	-1.749931e-03
1.15          	1.670651e-03	9.477329e-05	6.457241e-06	1.673879e-03	-1.667422e-03
1.2           	1.615867e-03	9.139905e-05	5.594429e-06	1.618664e-03	-1.613070e-03
1.25          	1.583105e-03	8.923049e-05	4.854147e-06	1.585532e-03	-1.580678e-03
1.3           	1.559193e-03	8.735818e-05	4.336712e-06	1.561361e-03	-1.557025e-03
1.35          	1.537827e-03	8.534755e-05	3.884320e-06	1.539769e-03	-1.535884e-03
1.4           	1.518580e-03	8.360039e-05	3.418819e-06	1.520290e-03	-1.516871e-03
1.45          	1.503146e-03	8.220186e-05	2.863853e-06	1.504578e-03	-1.501714e-03
1.5           	1.489718e-03	8.110392e-05	2.352186e-06	1.490894e-03	-1.488542e-03
1.55          	1.477510e-03	8.015257e-05	1.990655e-06	1.478505e-03	-1.476514e-03
1.6           	1.468144e-03	7.937632e-05	1.768044e-06	1.469028e-03	-1.467259e-03
1.65          	1.461825e-03	7.873922e-05	1.585968e-06	1.462618e-03	-1.461032e-03
1.7           	1.457211e-03	7.821310e-05	1.429321e-06	1.457926e-03	-1.456497e-03
1.75          	1.453363e-03	7.778004e-05	1.287278e-06	1.454007e-03	-1.452720e-03
1.8           	1.450243e-03	7.745873e-05	1.166296e-06	1.450826e-03	-1.449660e-03
1.85          	1.447976e-03	7.711691e-05	1.020522e-06	1.448487e-03	-1.447466e-03
1.9           	1.446278e-03	7.682978e-05	8.925609e-07	1.446724e-03	-1.445832e-03
1.95          	1.444948e-03	7.663992e-05	8.042810e-07	1.445350e-03	-1.444545e-03
2             	1.444223e-03	7.642019e-05	6.926171e-07	1.444569e-03	-1.443876e-03
2.05          	1.443534e-03	7.624808e-05	5.966417e-07	1.443833e-03	-1.443236e-03
2.1           	1.442825e-03	7.613467e-05	5.367370e-07	1.443093e-03	-1.442556e-03
2.15          	1.442385e-03	7.602356e-05	4.683576e-07	1.442619e-03	-1.442151e-03
2.2           	1.441986e-03	7.593305e-05	4.219840e-07	1.442197e-03	-1.441775e-03
2.25          	1.441750e-03	7.582746e-05	3.704678e-07	1.441936e-03	-1.441565e-03
2.3           	1.441475e-03	7.575184e-05	3.324688e-07	1.441641e-03	-1.441309e-03
2.35          	1.441412e-03	7.567987e-05	2.867111e-07	1.441555e-03	-1.441268e-03
2.4           	1.441196e-03	7.563148e-05	2.571730e-07	1.441324e-03	-1.441067e-03
2.45          	1.441039e-03	7.558756e-05	2.296268e-07	1.441153e-03	-1.440924e-03
2.5           	1.441025e-03	7.553825e-05	1.953171e-07	1.441122e-03	-1.440927e-03
2.55          	1.440879e-03	7.550284e-05	1.762380e-07	1.440967e-03	-1.440791e-03
2.6           	1.440750e-03	7.547004e-05	1.597795e-07	1.440830e-03	-1.440670e-03
2.65          	1.440665e-03	7.543464e-05	1.409428e-07	1.440736e-03	-1.440595e-03
2.7           	1.440576e-03	7.541323e-05	1.283929e-07	1.440640e-03	-1.440512e-03
2.75          	1.440510e-03	7.539425e-05	1.167383e-07	1.440568e-03	-1.440452e-03
2.8           	1.440501e-03	7.537339e-05	1.023910e-07	1.440552e-03	-1.440449e-03
2.85          	1.440464e-03	7.535895e-05	9.315059e-08	1.440510e-03	-1.440417e-03
2.9           	1.440437e-03	7.534538e-05	8.477853e-08	1.440480e-03	-1.440395e-03
2.95          	1.440442e-03	7.533051e-05	7.496394e-08	1.440479e-03	-1.440404e-03
3             	1.440402e-03	7.532074e-05	6.917732e-08	1.440437e-03	-1.440368e-03
3.05          	1.440363e-03	7.531186e-05	6.420132e-08	1.440395e-03	-1.440331e-03
3.1           	1.440336e-03	7.530143e-05	5.842735e-08	1.440365e-03	-1.440306e-03
3.15          	1.440323e-03	7.529546e-05	5.427068e-08	1.440350e-03	-1.440296e-03
3.2           	1.440322e-03	7.528998e-05	5.024172e-08	1.440347e-03	-1.440296e-03
3.25          	1.440335e-03	7.528364e-05	4.530265e-08	1.440358e-03	-1.440313e-03
3.3           	1.440321e-03	7.527926e-05	4.245289e-08	1.440343e-03	-1.440300e-03
3.35          	1.440301e-03	7.527508e-05	4.015558e-08	1.440321e-03	-1.440281e-03
3.4           	1.440284e-03	7.527016e-05	3.763142e-08	1.440303e-03	-1.440266e-03
3.45          	1.440276e-03	7.526730e-05	3.573294e-08	1.440294e-03	-1.440258e-03
3.5           	1.440281e-03	7.526509e-05	3.378557e-08	1.440298e-03	-1.440265e-03
3.55          	1.440300e-03	7.526252e-05	3.125131e-08	1.440315e-03	-1.440284e-03
3.6           	1.440298e-03	7.526063e-05	2.977552e-08	1.440313e-03	-1.440283e-03
3.65          	1.440291e-03	7.525870e-05	2.851731e-08	1.440305e-03	-1.440277e-03
3.7           	1.440278e-03	7.525620e-05	2.734034e-08	1.440291e-03	-1.440264e-03
3.75          	1.440270e-03	7.525482e-05	2.651138e-08	1.440283e-03	-1.440256e-03
3.8           	1.440273e-03	7.525392e-05	2.561041e-08	1.440286e-03	-1.440260e-03
3.85          	1.440285e-03	7.525293e-05	2.442459e-08	1.440297e-03	-1.440273e-03
3.9           	1.440290e-03	7.525194e-05	2.342232e-08	1.440302e-03	-1.440279e-03
3.95          	1.440287e-03	7.525117e-05	2.281469e-08	1.440299e-03	-1.440276e-03
4             	1.440282e-03	7.525009e-05	2.220024e-08	1.440293e-03	-1.440271e-03
4.05          	1.440272e-03	7.524911e-05	2.188494e-08	1.440283e-03	-1.440261e-03
4.1           	1.440266e-03	7.524837e-05	2.161051e-08	1.440277e-03	-1.440255e-03
4.15          	1.440266e-03	7.524797e-05	2.125924e-08	1.440277e-03	-1.440255e-03
4.2           	1.440277e-03	7.524781e-05	2.068918e-08	1.440287e-03	-1.440267e-03
4.25          	1.440287e-03	7.524768e-05	2.008058e-08	1.440297e-03	-1.440277e-03
4.3           	1.440291e-03	7.524734e-05	1.954810e-08	1.440301e-03	-1.440282e-03
4.35          	1.440289e-03	7.524688e-05	1.918837e-08	1.440298e-03	-1.440279e-03
4.4           	1.440279e-03	7.524634e-05	1.916115e-08	1.440289e-03	-1.440270e-03
4.45          	1.440270e-03	7.524586e-05	1.922606e-08	1.440280e-03	-1.440260e-03
4.5           	1.440271e-03	7.524568e-05	1.901695e-08	1.440281e-03	-1.440262e-03
4.55          	1.440272e-03	7.524551e-05	1.886806e-08	1.440281e-03	-1.440263e-03
4.6           	1.440273e-03	7.524530e-05	1.873569e-08	1.440282e-03	-1.440263e-03
4.65          	1.440273e-03	7.524506e-05	1.859895e-08	1.440282e-03	-1.440264e-03
4.7           	1.440273e-03	7.524484e-05	1.844045e-08	1.440282e-03	-1.440264e-03
4.75          	1.440280e-03	7.524489e-05	1.809223e-08	1.440289e-03	-1.440271e-03
4.8           	1.440280e-03	7.524476e-05	1.790059e-08	1.440289e-03	-1.440271e-03
4.85          	1.440283e-03	7.524475e-05	1.764558e-08	1.440292e-03	-1.440275e-03
4.9           	1.440287e-03	7.524478e-05	1.739556e-08	1.440296e-03	-1.440278e-03
4.95          	1.440286e-03	7.524474e-05	1.734711e-08	1.440295e-03	-1.440277e-03
5             	1.440283e-03	7.524465e-05	1.739308e-08	1.440292e-03	-1.440275e-03
5.05          	1.440280e-03	7.524451e-05	1.748334e-08	1.440288e-03	-1.440271e-03
5.1           	1.440279e-03	7.524440e-05	1.742925e-08	1.440288e-03	-1.440270e-03
5.15          	1.440278e-03	7.524428e-05	1.744333e-08	1.440286e-03	-1.440269e-03
5.2           	1.440276e-03	7.524415e-05	1.747644e-08	1.440284e-03	-1.440267e-03
5.25          	1.440274e-03	7.524405e-05	1.750975e-08	1.440283e-03	-1.440265e-03
5.3           	1.440273e-03	7.524397e-05	1.752781e-08	1.440282e-03	-1.440264e-03
5.35          	1.440273e-03	7.524391e-05	1.752153e-08	1.440282e-03	-1.440264e-03
5.4           	1.440273e-03	7.524386e-05	1.745839e-08	1.440282e-03	-1.440264e-03
